 vasp.6.3.2 27Jun22 (build Jul 28 2023 09:48:25) complex                        
  
 executed on             LinuxIFC date 2024.10.24  21:08:03
 running on    1 total cores
 distrk:  each k-point on    1 cores,    1 groups
 distr:  one band on NCORE=   1 cores,    1 groups


--------------------------------------------------------------------------------------------------------


 INCAR:
   ISTART = 1            (Read existing wavefunction
   ISPIN = 1            (Non-Spin polarised DFT)
   LREAL = .FALSE.       (Projection operators: automatic)
   PREC = Normal       (Precision level)
   LWAVE = .TRUE.        (Write WAVECAR or not)
   LCHARG = .TRUE.        (Write CHGCAR or not)
   ADDGRID = .TRUE.        (Increase grid
   ISMEAR = 0            (gaussian smearing method)
   SIGMA = 0.05         (please check the width of the smearing)
   LORBIT = 11           (PAW radii for projected DOS)
   NEDOS = 2001         (DOSCAR points)
   NELM = 60           (Max electronic SCF steps)
   EDIFF = 1E-08        (SCF energy convergence

 POTCAR:    PAW_PBE Ba_sv 06Sep2000               
 POTCAR:    PAW_PBE Y_sv 25May2007                
 POTCAR:    PAW_PBE Cu 22Jun2005                  
 POTCAR:    PAW_PBE O 08Apr2002                   
 POTCAR:    PAW_PBE Ba_sv 06Sep2000               
   VRHFIN =Ba: 5s5p6s                                                                               
   LEXCH  = PE                                                                                      
   EATOM  =   700.8560 eV,   51.5115 Ry                                                             
                                                                                                    
   TITEL  = PAW_PBE Ba_sv 06Sep2000                                                                 
   LULTRA =        F    use ultrasoft PP ?                                                          
   IUNSCR =        1    unscreen: 0-lin 1-nonlin 2-no                                               
   RPACOR =    2.400    partial core radius                                                         
   POMASS =  137.327; ZVAL   =   10.000    mass and valenz                                          
   RCORE  =    2.800    outmost cutoff radius                                                       
   RWIGS  =    3.740; RWIGS  =    1.979    wigner-seitz radius (au A)                               
   ENMAX  =  187.181; ENMIN  =  140.386 eV                                                          
   RCLOC  =    2.516    cutoff for local pot                                                        
   LCOR   =        T    correct aug charges                                                         
   LPAW   =        T    paw PP                                                                      
   EAUG   =  351.165                                                                                
   DEXC   =    0.000                                                                                
   RMAX   =    2.865    core radius for proj-oper                                                   
   RAUG   =    1.300    factor for augmentation sphere                                              
   RDEP   =    2.976    radius for radial grids                                                     
   RDEPT  =    2.289    core radius for aug-charge                                                  
                                                                                                    
   Atomic configuration                                                                             
   13 entries                                                                                       
     n  l   j            E        occ.                                                              
     1  0  0.50    -37249.5946   2.0000                                                             
     2  0  0.50     -5887.1925   2.0000                                                             
     2  1  1.50     -5278.3977   6.0000                                                             
     3  0  0.50     -1242.7293   2.0000                                                             
     3  1  1.50     -1047.6609   6.0000                                                             
     3  2  2.50      -764.6158  10.0000                                                             
     4  0  0.50      -243.8228   2.0000                                                             
     4  1  1.50      -180.9218   6.0000                                                             
     4  2  2.50       -89.6477  10.0000                                                             
     5  0  0.50       -33.6549   2.0000                                                             
     6  0  0.50        -3.2247   1.9900                                                             
     5  1  1.50       -18.7193   6.0000                                                             
     5  2  2.50        -2.0115   0.0100                                                             
   Description                                                                                      
     l       E           TYP  RCUT    TYP  RCUT                                                     
     0    -33.6549039     23  2.800                                                                 
     0     -3.2246942     23  2.800                                                                 
     1    -18.7193050     23  2.700                                                                 
     1     27.2116520     23  2.700                                                                 
     2     -2.0115002     23  2.700                                                                 
     2      0.3057420     23  2.700                                                                 
  local pseudopotential read in
  partial core-charges read in
  partial kinetic energy density read in
  atomic valenz-charges read in
  non local Contribution for L=           0  read in
    real space projection operators read in
  non local Contribution for L=           0  read in
    real space projection operators read in
  non local Contribution for L=           1  read in
    real space projection operators read in
  non local Contribution for L=           1  read in
    real space projection operators read in
  non local Contribution for L=           2  read in
    real space projection operators read in
  non local Contribution for L=           2  read in
    real space projection operators read in
    PAW grid and wavefunctions read in
 
   number of l-projection  operators is LMAX  =           6
   number of lm-projection operators is LMMAX =          18
 
 POTCAR:    PAW_PBE Y_sv 25May2007                
   VRHFIN =Y: 4s4p5s4d                                                                              
   LEXCH  = PE                                                                                      
   EATOM  =  1046.9140 eV,   76.9460 Ry                                                             
                                                                                                    
   TITEL  = PAW_PBE Y_sv 25May2007                                                                  
   LULTRA =        F    use ultrasoft PP ?                                                          
   IUNSCR =        1    unscreen: 0-lin 1-nonlin 2-no                                               
   RPACOR =    2.200    partial core radius                                                         
   POMASS =   88.906; ZVAL   =   11.000    mass and valenz                                          
   RCORE  =    2.800    outmost cutoff radius                                                       
   RWIGS  =    3.430; RWIGS  =    1.815    wigner-seitz radius (au A)                               
   ENMAX  =  202.626; ENMIN  =  151.970 eV                                                          
   RCLOC  =    2.212    cutoff for local pot                                                        
   LCOR   =        T    correct aug charges                                                         
   LPAW   =        T    paw PP                                                                      
   EAUG   =  470.889                                                                                
   DEXC   =    0.000                                                                                
   RMAX   =    2.863    core radius for proj-oper                                                   
   RAUG   =    1.300    factor for augmentation sphere                                              
   RDEP   =    2.926    radius for radial grids                                                     
   RDEPT  =    2.280    core radius for aug-charge                                                  
                                                                                                    
   Atomic configuration                                                                             
   11 entries                                                                                       
     n  l   j            E        occ.                                                              
     1  0  0.50    -16863.0720   2.0000                                                             
     2  0  0.50     -2309.2881   2.0000                                                             
     2  1  1.50     -2055.5536   6.0000                                                             
     3  0  0.50      -367.1837   2.0000                                                             
     3  1  1.50      -284.8912   6.0000                                                             
     3  2  2.50      -149.4324  10.0000                                                             
     4  0  0.50       -46.3345   2.0000                                                             
     5  0  0.50        -3.6387   1.0000                                                             
     4  1  1.50       -26.3769   6.0000                                                             
     4  2  2.50        -1.6291   2.0000                                                             
     4  3  2.50        -1.3606   0.0000                                                             
   Description                                                                                      
     l       E           TYP  RCUT    TYP  RCUT                                                     
     0    -46.3344714     23  2.600                                                                 
     0     -3.6387002     23  2.700                                                                 
     1    -26.3769044     23  2.600                                                                 
     1    -27.7374870     23  2.600                                                                 
     2     -1.6291019     23  2.600                                                                 
     2      0.1354037     23  2.600                                                                 
     3     -1.3605826     23  2.800                                                                 
  local pseudopotential read in
  partial core-charges read in
  partial kinetic energy density read in
  atomic valenz-charges read in
  non local Contribution for L=           0  read in
    real space projection operators read in
  non local Contribution for L=           0  read in
    real space projection operators read in
  non local Contribution for L=           1  read in
    real space projection operators read in
  non local Contribution for L=           1  read in
    real space projection operators read in
  non local Contribution for L=           2  read in
    real space projection operators read in
  non local Contribution for L=           2  read in
    real space projection operators read in
  non local Contribution for L=           3  read in
    real space projection operators read in
    PAW grid and wavefunctions read in
 
   number of l-projection  operators is LMAX  =           7
   number of lm-projection operators is LMMAX =          25
 
 POTCAR:    PAW_PBE Cu 22Jun2005                  
   VRHFIN =Cu: d10 p1                                                                               
   LEXCH  = PE                                                                                      
   EATOM  =  1390.9808 eV,  102.2342 Ry                                                             
                                                                                                    
   TITEL  = PAW_PBE Cu 22Jun2005                                                                    
   LULTRA =        F    use ultrasoft PP ?                                                          
   IUNSCR =        1    unscreen: 0-lin 1-nonlin 2-no                                               
   RPACOR =    2.000    partial core radius                                                         
   POMASS =   63.546; ZVAL   =   11.000    mass and valenz                                          
   RCORE  =    2.300    outmost cutoff radius                                                       
   RWIGS  =    2.200; RWIGS  =    1.164    wigner-seitz radius (au A)                               
   ENMAX  =  295.446; ENMIN  =  221.585 eV                                                          
   ICORE  =        3    local potential                                                             
   LCOR   =        T    correct aug charges                                                         
   LPAW   =        T    paw PP                                                                      
   EAUG   =  586.980                                                                                
   DEXC   =    0.000                                                                                
   RMAX   =    2.344    core radius for proj-oper                                                   
   RAUG   =    1.300    factor for augmentation sphere                                              
   RDEP   =    2.302    radius for radial grids                                                     
   RDEPT  =    1.771    core radius for aug-charge                                                  
                                                                                                    
   Atomic configuration                                                                             
    9 entries                                                                                       
     n  l   j            E        occ.                                                              
     1  0  0.50     -8850.2468   2.0000                                                             
     2  0  0.50     -1062.3498   2.0000                                                             
     2  1  1.50      -916.8226   6.0000                                                             
     3  0  0.50      -114.6929   2.0000                                                             
     3  1  1.50       -72.1325   6.0000                                                             
     3  2  2.50        -5.0394  10.0000                                                             
     4  0  0.50        -4.6097   1.0000                                                             
     4  1  0.50        -4.0817   0.0000                                                             
     4  3  2.50        -1.3606   0.0000                                                             
   Description                                                                                      
     l       E           TYP  RCUT    TYP  RCUT                                                     
     2     -5.0393973     23  2.200                                                                 
     2     10.8846608     23  2.200                                                                 
     0     -4.6097109     23  2.200                                                                 
     0      8.2520465     23  2.200                                                                 
     1     -2.7211652     23  2.200                                                                 
     1     21.7055443     23  2.200                                                                 
     3      2.7211652     23  2.300                                                                 
  local pseudopotential read in
  partial core-charges read in
  partial kinetic energy density read in
  atomic valenz-charges read in
  non local Contribution for L=           2  read in
    real space projection operators read in
  non local Contribution for L=           2  read in
    real space projection operators read in
  non local Contribution for L=           0  read in
    real space projection operators read in
  non local Contribution for L=           0  read in
    real space projection operators read in
  non local Contribution for L=           1  read in
    real space projection operators read in
  non local Contribution for L=           1  read in
    real space projection operators read in
    PAW grid and wavefunctions read in
 
   number of l-projection  operators is LMAX  =           6
   number of lm-projection operators is LMMAX =          18
 
 POTCAR:    PAW_PBE O 08Apr2002                   
   VRHFIN =O: s2p4                                                                                  
   LEXCH  = PE                                                                                      
   EATOM  =   432.3788 eV,   31.7789 Ry                                                             
                                                                                                    
   TITEL  = PAW_PBE O 08Apr2002                                                                     
   LULTRA =        F    use ultrasoft PP ?                                                          
   IUNSCR =        1    unscreen: 0-lin 1-nonlin 2-no                                               
   RPACOR =    1.200    partial core radius                                                         
   POMASS =   16.000; ZVAL   =    6.000    mass and valenz                                          
   RCORE  =    1.520    outmost cutoff radius                                                       
   RWIGS  =    1.550; RWIGS  =    0.820    wigner-seitz radius (au A)                               
   ENMAX  =  400.000; ENMIN  =  300.000 eV                                                          
   ICORE  =        2    local potential                                                             
   LCOR   =        T    correct aug charges                                                         
   LPAW   =        T    paw PP                                                                      
   EAUG   =  605.392                                                                                
   DEXC   =    0.000                                                                                
   RMAX   =    1.553    core radius for proj-oper                                                   
   RAUG   =    1.300    factor for augmentation sphere                                              
   RDEP   =    1.550    radius for radial grids                                                     
   RDEPT  =    1.329    core radius for aug-charge                                                  
                                                                                                    
   Atomic configuration                                                                             
    4 entries                                                                                       
     n  l   j            E        occ.                                                              
     1  0  0.50      -514.6923   2.0000                                                             
     2  0  0.50       -23.9615   2.0000                                                             
     2  1  0.50        -9.0305   4.0000                                                             
     3  2  1.50        -9.5241   0.0000                                                             
   Description                                                                                      
     l       E           TYP  RCUT    TYP  RCUT                                                     
     0    -23.9615318     23  1.200                                                                 
     0     -9.5240782     23  1.200                                                                 
     1     -9.0304911     23  1.520                                                                 
     1      8.1634956     23  1.520                                                                 
     2     -9.5240782      7  1.500                                                                 
  local pseudopotential read in
  partial core-charges read in
  partial kinetic energy density read in
  kinetic energy density of atom read in
  atomic valenz-charges read in
  non local Contribution for L=           0  read in
    real space projection operators read in
  non local Contribution for L=           0  read in
    real space projection operators read in
  non local Contribution for L=           1  read in
    real space projection operators read in
  non local Contribution for L=           1  read in
    real space projection operators read in
    PAW grid and wavefunctions read in
 
   number of l-projection  operators is LMAX  =           4
   number of lm-projection operators is LMMAX =           8
 
  PAW_PBE Ba_sv 06Sep2000               :
 energy of atom  1       EATOM= -700.8560
 kinetic energy error for atom=    0.0014 (will be added to EATOM!!)
  PAW_PBE Y_sv 25May2007                :
 energy of atom  2       EATOM=-1046.9140
 kinetic energy error for atom=    0.0026 (will be added to EATOM!!)
  PAW_PBE Cu 22Jun2005                  :
 energy of atom  3       EATOM=-1390.9808
 kinetic energy error for atom=    0.0232 (will be added to EATOM!!)
  PAW_PBE O 08Apr2002                   :
 energy of atom  4       EATOM= -432.3788
 kinetic energy error for atom=    0.1156 (will be added to EATOM!!)
 
 
 POSCAR: Ba2 Y1 Cu3 O7
  positions in direct lattice
  velocities in cartesian coordinates
  No initial velocities read in
 exchange correlation table for  LEXCH =        8
   RHO(1)=    0.500       N(1)  =     2000
   RHO(2)=  100.500       N(2)  =     4000
 


--------------------------------------------------------------------------------------------------------


 ion  position               nearest neighbor table
   1  0.500  0.500  0.819-  12 2.76  12 2.76  12 2.76  12 2.76   7 2.87   7 2.87  10 3.03  10 3.03
                             8 3.06   8 3.06   4 3.42   4 3.42   4 3.42   4 3.42   6 3.48   6 3.48
   2  0.500  0.500  0.181-  13 2.76  13 2.76  13 2.76  13 2.76   7 2.87   7 2.87  11 3.03  11 3.03
                             9 3.06   9 3.06   5 3.42   5 3.42   5 3.42   5 3.42   6 3.48   6 3.48
   3  0.500  0.500  0.500-  10 2.40  11 2.40  10 2.40  11 2.40   8 2.43   8 2.43   9 2.43   9 2.43
                             4 3.25   4 3.25   4 3.25   4 3.25   5 3.25   5 3.25   5 3.25   5 3.25
   4  0.000  0.000  0.647-   8 1.95   8 1.95  10 1.99  10 1.99  12 2.30   3 3.25   3 3.25   3 3.25
                             3 3.25   1 3.42   1 3.42   1 3.42   1 3.42
   5  0.000  0.000  0.353-   9 1.95   9 1.95  11 1.99  11 1.99  13 2.30   3 3.25   3 3.25   3 3.25
                             3 3.25   2 3.42   2 3.42   2 3.42   2 3.42
   6  0.000  0.000  0.000-  12 1.88  13 1.88   7 1.96   7 1.96   1 3.48   1 3.48   1 3.48   1 3.48
                             2 3.48   2 3.48   2 3.48   2 3.48
   7  0.000  0.500  0.000-   6 1.96   6 1.96   1 2.87   1 2.87   2 2.87   2 2.87
   8  0.500  0.000  0.621-   4 1.95   4 1.95   3 2.43   3 2.43   1 3.06   1 3.06
   9  0.500  0.000  0.379-   5 1.95   5 1.95   3 2.43   3 2.43   2 3.06   2 3.06
  10  0.000  0.500  0.622-   4 1.99   4 1.99   3 2.40   3 2.40   1 3.03   1 3.03
  11  0.000  0.500  0.378-   5 1.99   5 1.99   3 2.40   3 2.40   2 3.03   2 3.03
  12  0.000  0.000  0.841-   6 1.88   4 2.30   1 2.76   1 2.76   1 2.76   1 2.76
  13  0.000  0.000  0.159-   6 1.88   5 2.30   2 2.76   2 2.76   2 2.76   2 2.76
 
  LATTYP: Found a simple orthorhombic cell.
 ALAT       =     3.8446679115
 B/A-ratio  =     1.0211940488
 C/A-ratio  =     3.0753407014
  
  Lattice vectors:
  
 A1 = (   3.8446679115,   0.0000000000,   0.0000000000)
 A2 = (   0.0000000000,   3.9261519909,   0.0000000000)
 A3 = (   0.0000000000,   0.0000000000,  11.8236637115)


Analysis of symmetry for initial positions (statically):
=====================================================================
 Subroutine PRICEL returns:
 Original cell was already a primitive cell.
 

 Routine SETGRP: Setting up the symmetry group for a 
 simple orthorhombic supercell.


 Subroutine GETGRP returns: Found  8 space group operations
 (whereof  8 operations were pure point group operations)
 out of a pool of  8 trial point group operations.


The static configuration has the point symmetry D_2h.


Analysis of symmetry for dynamics (positions and initial velocities):
=====================================================================
 Subroutine PRICEL returns:
 Original cell was already a primitive cell.
 

 Routine SETGRP: Setting up the symmetry group for a 
 simple orthorhombic supercell.


 Subroutine GETGRP returns: Found  8 space group operations
 (whereof  8 operations were pure point group operations)
 out of a pool of  8 trial point group operations.


The dynamic configuration has the point symmetry D_2h.


 Subroutine INISYM returns: Found  8 space group operations
 (whereof  8 operations are pure point group operations),
 and found     1 'primitive' translations


----------------------------------------------------------------------------------------

                                     Primitive cell                                     

  volume of cell :     178.4753

  direct lattice vectors                    reciprocal lattice vectors
     3.844667912  0.000000000  0.000000000     0.260100488  0.000000000  0.000000000
     0.000000000  3.926151991  0.000000000     0.000000000  0.254702315  0.000000000
     0.000000000  0.000000000 11.823663712     0.000000000  0.000000000  0.084576154

  length of vectors
     3.844667912  3.926151991 11.823663712     0.260100488  0.254702315  0.084576154

  position of ions in fractional coordinates (direct lattice)
     0.500000000  0.500000000  0.819391012
     0.500000000  0.500000000  0.180609003
     0.500000000  0.500000000  0.500000000
     0.000000000  0.000000000  0.646677971
     0.000000000  0.000000000  0.353321999
     0.000000000  0.000000000  0.000000000
     0.000000000  0.500000000  0.000000000
     0.500000000  0.000000000  0.620652974
     0.500000000  0.000000000  0.379346997
     0.000000000  0.500000000  0.621650994
     0.000000000  0.500000000  0.378349006
     0.000000000  0.000000000  0.840820014
     0.000000000  0.000000000  0.159180000

  ion indices of the primitive-cell ions
   primitive index   ion index
                 1           1
                 2           2
                 3           3
                 4           4
                 5           5
                 6           6
                 7           7
                 8           8
                 9           9
                10          10
                11          11
                12          12
                13          13

----------------------------------------------------------------------------------------

 
 
 KPOINTS: KPT-Resolved Value to Generate K-Mesh: 0

Automatic generation of k-mesh.
 Grid dimensions read from file:
 generate k-points for:    7    6    2

 Generating k-lattice:

  Cartesian coordinates                     Fractional coordinates (reciprocal lattice)
     0.037157213  0.000000000  0.000000000     0.142857143  0.000000000  0.000000000
     0.000000000  0.042450386  0.000000000     0.000000000  0.166666667  0.000000000
     0.000000000  0.000000000  0.042288077     0.000000000  0.000000000  0.500000000

  Length of vectors
     0.037157213  0.042450386  0.042288077

  Shift w.r.t. Gamma in fractional coordinates (k-lattice)
     0.000000000  0.000000000  0.000000000

 
 Subroutine IBZKPT returns following result:
 ===========================================
 
 Found     32 irreducible k-points:
 
 Following reciprocal coordinates:
            Coordinates               Weight
  0.000000  0.000000  0.000000      1.000000
  0.142857  0.000000  0.000000      2.000000
  0.285714  0.000000  0.000000      2.000000
  0.428571  0.000000  0.000000      2.000000
  0.000000  0.166667  0.000000      2.000000
  0.142857  0.166667  0.000000      4.000000
  0.285714  0.166667  0.000000      4.000000
  0.428571  0.166667  0.000000      4.000000
  0.000000  0.333333  0.000000      2.000000
  0.142857  0.333333  0.000000      4.000000
  0.285714  0.333333  0.000000      4.000000
  0.428571  0.333333  0.000000      4.000000
  0.000000  0.500000  0.000000      1.000000
  0.142857  0.500000  0.000000      2.000000
  0.285714  0.500000  0.000000      2.000000
  0.428571  0.500000  0.000000      2.000000
  0.000000  0.000000  0.500000      1.000000
  0.142857  0.000000  0.500000      2.000000
  0.285714  0.000000  0.500000      2.000000
  0.428571  0.000000  0.500000      2.000000
  0.000000  0.166667  0.500000      2.000000
  0.142857  0.166667  0.500000      4.000000
  0.285714  0.166667  0.500000      4.000000
  0.428571  0.166667  0.500000      4.000000
  0.000000  0.333333  0.500000      2.000000
  0.142857  0.333333  0.500000      4.000000
  0.285714  0.333333  0.500000      4.000000
  0.428571  0.333333  0.500000      4.000000
  0.000000  0.500000  0.500000      1.000000
  0.142857  0.500000  0.500000      2.000000
  0.285714  0.500000  0.500000      2.000000
  0.428571  0.500000  0.500000      2.000000
 
 Following cartesian coordinates:
            Coordinates               Weight
  0.000000  0.000000  0.000000      1.000000
  0.037157  0.000000  0.000000      2.000000
  0.074314  0.000000  0.000000      2.000000
  0.111472  0.000000  0.000000      2.000000
  0.000000  0.042450  0.000000      2.000000
  0.037157  0.042450  0.000000      4.000000
  0.074314  0.042450  0.000000      4.000000
  0.111472  0.042450  0.000000      4.000000
  0.000000  0.084901  0.000000      2.000000
  0.037157  0.084901  0.000000      4.000000
  0.074314  0.084901  0.000000      4.000000
  0.111472  0.084901  0.000000      4.000000
  0.000000  0.127351  0.000000      1.000000
  0.037157  0.127351  0.000000      2.000000
  0.074314  0.127351  0.000000      2.000000
  0.111472  0.127351  0.000000      2.000000
  0.000000  0.000000  0.042288      1.000000
  0.037157  0.000000  0.042288      2.000000
  0.074314  0.000000  0.042288      2.000000
  0.111472  0.000000  0.042288      2.000000
  0.000000  0.042450  0.042288      2.000000
  0.037157  0.042450  0.042288      4.000000
  0.074314  0.042450  0.042288      4.000000
  0.111472  0.042450  0.042288      4.000000
  0.000000  0.084901  0.042288      2.000000
  0.037157  0.084901  0.042288      4.000000
  0.074314  0.084901  0.042288      4.000000
  0.111472  0.084901  0.042288      4.000000
  0.000000  0.127351  0.042288      1.000000
  0.037157  0.127351  0.042288      2.000000
  0.074314  0.127351  0.042288      2.000000
  0.111472  0.127351  0.042288      2.000000
 


--------------------------------------------------------------------------------------------------------




 Dimension of arrays:
   k-points           NKPTS =     32   k-points in BZ     NKDIM =     32   number of bands    NBANDS=     63
   number of dos      NEDOS =   2001   number of ions     NIONS =     13
   non local maximal  LDIM  =      7   non local SUM 2l+1 LMDIM =     25
   total plane-waves  NPLWV =  24000
   max r-space proj   IRMAX =      1   max aug-charges    IRDMAX=  77744
   dimension x,y,z NGX =    20 NGY =   20 NGZ =   60
   dimension x,y,z NGXF=    40 NGYF=   40 NGZF=  120
   support grid    NGXF=    80 NGYF=   80 NGZF=  240
   ions per type =               2   1   3   7
   NGX,Y,Z   is equivalent  to a cutoff of   8.65,  8.47,  8.44 a.u.
   NGXF,Y,Z  is equivalent  to a cutoff of  17.30, 16.94, 16.87 a.u.

 SYSTEM =  unknown system                          
 POSCAR =  Ba2 Y1 Cu3 O7                           

 Startparameter for this run:
   NWRITE =      2    write-flag & timer
   PREC   = normal    normal or accurate (medium, high low for compatibility)
   ISTART =      0    job   : 0-new  1-cont  2-samecut
   ICHARG =      2    charge: 1-file 2-atom 10-const
   ISPIN  =      1    spin polarized calculation?
   LNONCOLLINEAR =      F non collinear calculations
   LSORBIT =      F    spin-orbit coupling
   INIWAV =      1    electr: 0-lowe 1-rand  2-diag
   LASPH  =      F    aspherical Exc in radial PAW
 Electronic Relaxation 1
   ENCUT  =  400.0 eV  29.40 Ry    5.42 a.u.   6.27  6.40 19.28*2*pi/ulx,y,z
   ENINI  =  400.0     initial cutoff
   ENAUG  =  605.4 eV  augmentation charge cutoff
   NELM   =     60;   NELMIN=  2; NELMDL=  0     # of ELM steps 
   EDIFF  = 0.1E-07   stopping-criterion for ELM
   LREAL  =      F    real-space projection
   NLSPLINE    = F    spline interpolate recip. space projectors
   LCOMPAT=      F    compatible to vasp.4.4
   GGA_COMPAT  = T    GGA compatible to vasp.4.4-vasp.4.6
   LMAXPAW     = -100 max onsite density
   LMAXMIX     =    2 max onsite mixed and CHGCAR
   VOSKOWN=      0    Vosko Wilk Nusair interpolation
   ROPT   =    0.00000   0.00000   0.00000   0.00000
 Ionic relaxation
   EDIFFG = 0.1E-06   stopping-criterion for IOM
   NSW    =      0    number of steps for IOM
   NBLOCK =      1;   KBLOCK =      1    inner block; outer block 
   IBRION =     -1    ionic relax: 0-MD 1-quasi-New 2-CG
   NFREE  =      0    steps in history (QN), initial steepest desc. (CG)
   ISIF   =      2    stress and relaxation
   IWAVPR =     10    prediction:  0-non 1-charg 2-wave 3-comb
   ISYM   =      2    0-nonsym 1-usesym 2-fastsym
   LCORR  =      T    Harris-Foulkes like correction to forces

   POTIM  = 0.5000    time-step for ionic-motion
   TEIN   =    0.0    initial temperature
   TEBEG  =    0.0;   TEEND  =   0.0 temperature during run
   SMASS  =  -3.00    Nose mass-parameter (am)
   estimated Nose-frequenzy (Omega)   =  0.10E-29 period in steps = 0.13E+47 mass=  -0.338E-27a.u.
   SCALEE = 1.0000    scale energy and forces
   NPACO  =    256;   APACO  = 10.0  distance and # of slots for P.C.
   PSTRESS=    0.0 pullay stress

  Mass of Ions in am
   POMASS = 137.33 88.91 63.55 16.00
  Ionic Valenz
   ZVAL   =  10.00 11.00 11.00  6.00
  Atomic Wigner-Seitz radii
   RWIGS  =  -1.00 -1.00 -1.00 -1.00
  virtual crystal weights 
   VCA    =   1.00  1.00  1.00  1.00
   NELECT =     106.0000    total number of electrons
   NUPDOWN=      -1.0000    fix difference up-down

 DOS related values:
   EMIN   =  10.00;   EMAX   =-10.00  energy-range for DOS
   EFERMI =   0.00
   ISMEAR =     0;   SIGMA  =   0.05  broadening in eV -4-tet -1-fermi 0-gaus

 Electronic relaxation 2 (details)
   IALGO  =     38    algorithm
   LDIAG  =      T    sub-space diagonalisation (order eigenvalues)
   LSUBROT=      F    optimize rotation matrix (better conditioning)
   TURBO    =      0    0=normal 1=particle mesh
   IRESTART =      0    0=no restart 2=restart with 2 vectors
   NREBOOT  =      0    no. of reboots
   NMIN     =      0    reboot dimension
   EREF     =   0.00    reference energy to select bands
   IMIX   =      4    mixing-type and parameters
     AMIX     =   0.40;   BMIX     =  1.00
     AMIX_MAG =   1.60;   BMIX_MAG =  1.00
     AMIN     =   0.10
     WC   =   100.;   INIMIX=   1;  MIXPRE=   1;  MAXMIX= -45

 Intra band minimization:
   WEIMIN = 0.0000     energy-eigenvalue tresh-hold
   EBREAK =  0.40E-10  absolut break condition
   DEPER  =   0.30     relativ break condition  

   TIME   =   0.40     timestep for ELM

  volume/ion in A,a.u.               =      13.73        92.65
  Fermi-wavevector in a.u.,A,eV,Ry     =   1.376102  2.600457 25.764782  1.893658
  Thomas-Fermi vector in A             =   2.501378
 
 Write flags
   LWAVE        =      T    write WAVECAR
   LDOWNSAMPLE  =      F    k-point downsampling of WAVECAR
   LCHARG       =      T    write CHGCAR
   LVTOT        =      F    write LOCPOT, total local potential
   LVHAR        =      F    write LOCPOT, Hartree potential only
   LELF         =      F    write electronic localiz. function (ELF)
   LORBIT       =     11    0 simple, 1 ext, 2 COOP (PROOUT), +10 PAW based schemes


 Dipole corrections
   LMONO  =      F    monopole corrections only (constant potential shift)
   LDIPOL =      F    correct potential (dipole corrections)
   IDIPOL =      0    1-x, 2-y, 3-z, 4-all directions 
   EPSILON=  1.0000000 bulk dielectric constant

 Exchange correlation treatment:
   GGA     =    --    GGA type
   LEXCH   =     8    internal setting for exchange type
   LIBXC   =     F    Libxc                    
   VOSKOWN =     0    Vosko Wilk Nusair interpolation
   LHFCALC =     F    Hartree Fock is set to
   LHFONE  =     F    Hartree Fock one center treatment
   AEXX    =    0.0000 exact exchange contribution

 Linear response parameters
   LEPSILON=     F    determine dielectric tensor
   LRPA    =     F    only Hartree local field effects (RPA)
   LNABLA  =     F    use nabla operator in PAW spheres
   LVEL    =     F    velocity operator in full k-point grid
   CSHIFT  =0.1000    complex shift for real part using Kramers Kronig
   OMEGAMAX=  -1.0    maximum frequency
   DEG_THRESHOLD= 0.2000000E-02 threshold for treating states as degnerate
   RTIME   =   -0.100 relaxation time in fs
  (WPLASMAI=    0.000 imaginary part of plasma frequency in eV, 0.658/RTIME)
   DFIELD  = 0.0000000 0.0000000 0.0000000 field for delta impulse in time
 
  Optional k-point grid parameters
   LKPOINTS_OPT  =     F    use optional k-point grid
   KPOINTS_OPT_MODE=     1    mode for optional k-point grid
 
 Orbital magnetization related:
   ORBITALMAG=     F  switch on orbital magnetization
   LCHIMAG   =     F  perturbation theory with respect to B field
   DQ        =  0.001000  dq finite difference perturbation B field
   LLRAUG    =     F  two centre corrections for induced B field



--------------------------------------------------------------------------------------------------------


 Static calculation
 charge density and potential will be updated during run
 non-spin polarized calculation
 Variant of blocked Davidson
 Davidson routine will perform the subspace rotation
 perform sub-space diagonalisation
    after iterative eigenvector-optimisation
 modified Broyden-mixing scheme, WC =      100.0
 initial mixing is a Kerker type mixing with AMIX =  0.4000 and BMIX =      1.0000
 Hartree-type preconditioning will be used
 using additional bands           10
 reciprocal scheme for non local part
 use partial core corrections
 calculate Harris-corrections to forces 
   (improved forces if not selfconsistent)
 use gradient corrections 
 use of overlap-Matrix (Vanderbilt PP)
 Gauss-broadening in eV      SIGMA  =   0.05


--------------------------------------------------------------------------------------------------------


  energy-cutoff  :      400.00
  volume of cell :      178.48
      direct lattice vectors                 reciprocal lattice vectors
     3.844667912  0.000000000  0.000000000     0.260100488  0.000000000  0.000000000
     0.000000000  3.926151991  0.000000000     0.000000000  0.254702315  0.000000000
     0.000000000  0.000000000 11.823663712     0.000000000  0.000000000  0.084576154

  length of vectors
     3.844667912  3.926151991 11.823663712     0.260100488  0.254702315  0.084576154


 
 k-points in units of 2pi/SCALE and weight: KPT-Resolved Value to Generate K-Mesh: 0
   0.00000000  0.00000000  0.00000000       0.012
   0.03715721  0.00000000  0.00000000       0.024
   0.07431443  0.00000000  0.00000000       0.024
   0.11147164  0.00000000  0.00000000       0.024
   0.00000000  0.04245039  0.00000000       0.024
   0.03715721  0.04245039  0.00000000       0.048
   0.07431443  0.04245039  0.00000000       0.048
   0.11147164  0.04245039  0.00000000       0.048
   0.00000000  0.08490077  0.00000000       0.024
   0.03715721  0.08490077  0.00000000       0.048
   0.07431443  0.08490077  0.00000000       0.048
   0.11147164  0.08490077  0.00000000       0.048
   0.00000000  0.12735116  0.00000000       0.012
   0.03715721  0.12735116  0.00000000       0.024
   0.07431443  0.12735116  0.00000000       0.024
   0.11147164  0.12735116  0.00000000       0.024
   0.00000000  0.00000000  0.04228808       0.012
   0.03715721  0.00000000  0.04228808       0.024
   0.07431443  0.00000000  0.04228808       0.024
   0.11147164  0.00000000  0.04228808       0.024
   0.00000000  0.04245039  0.04228808       0.024
   0.03715721  0.04245039  0.04228808       0.048
   0.07431443  0.04245039  0.04228808       0.048
   0.11147164  0.04245039  0.04228808       0.048
   0.00000000  0.08490077  0.04228808       0.024
   0.03715721  0.08490077  0.04228808       0.048
   0.07431443  0.08490077  0.04228808       0.048
   0.11147164  0.08490077  0.04228808       0.048
   0.00000000  0.12735116  0.04228808       0.012
   0.03715721  0.12735116  0.04228808       0.024
   0.07431443  0.12735116  0.04228808       0.024
   0.11147164  0.12735116  0.04228808       0.024
 
 k-points in reciprocal lattice and weights: KPT-Resolved Value to Generate K-Mesh: 0
   0.00000000  0.00000000  0.00000000       0.012
   0.14285714  0.00000000  0.00000000       0.024
   0.28571429  0.00000000  0.00000000       0.024
   0.42857143  0.00000000  0.00000000       0.024
   0.00000000  0.16666667  0.00000000       0.024
   0.14285714  0.16666667  0.00000000       0.048
   0.28571429  0.16666667  0.00000000       0.048
   0.42857143  0.16666667  0.00000000       0.048
   0.00000000  0.33333333  0.00000000       0.024
   0.14285714  0.33333333  0.00000000       0.048
   0.28571429  0.33333333  0.00000000       0.048
   0.42857143  0.33333333  0.00000000       0.048
   0.00000000  0.50000000  0.00000000       0.012
   0.14285714  0.50000000  0.00000000       0.024
   0.28571429  0.50000000  0.00000000       0.024
   0.42857143  0.50000000  0.00000000       0.024
   0.00000000  0.00000000  0.50000000       0.012
   0.14285714  0.00000000  0.50000000       0.024
   0.28571429  0.00000000  0.50000000       0.024
   0.42857143  0.00000000  0.50000000       0.024
   0.00000000  0.16666667  0.50000000       0.024
   0.14285714  0.16666667  0.50000000       0.048
   0.28571429  0.16666667  0.50000000       0.048
   0.42857143  0.16666667  0.50000000       0.048
   0.00000000  0.33333333  0.50000000       0.024
   0.14285714  0.33333333  0.50000000       0.048
   0.28571429  0.33333333  0.50000000       0.048
   0.42857143  0.33333333  0.50000000       0.048
   0.00000000  0.50000000  0.50000000       0.012
   0.14285714  0.50000000  0.50000000       0.024
   0.28571429  0.50000000  0.50000000       0.024
   0.42857143  0.50000000  0.50000000       0.024
 
 position of ions in fractional coordinates (direct lattice) 
   0.50000000  0.50000000  0.81939101
   0.50000000  0.50000000  0.18060900
   0.50000000  0.50000000  0.50000000
   0.00000000  0.00000000  0.64667797
   0.00000000  0.00000000  0.35332200
   0.00000000  0.00000000  0.00000000
   0.00000000  0.50000000  0.00000000
   0.50000000  0.00000000  0.62065297
   0.50000000  0.00000000  0.37934700
   0.00000000  0.50000000  0.62165099
   0.00000000  0.50000000  0.37834901
   0.00000000  0.00000000  0.84082001
   0.00000000  0.00000000  0.15918000
 
 position of ions in cartesian coordinates  (Angst):
   1.92233396  1.96307600  9.68820377
   1.92233396  1.96307600  2.13546011
   1.92233396  1.96307600  5.91183186
   0.00000000  0.00000000  7.64610286
   0.00000000  0.00000000  4.17756050
   0.00000000  0.00000000  0.00000000
   0.00000000  1.96307600  0.00000000
   1.92233396  0.00000000  7.33839205
   1.92233396  0.00000000  4.48527132
   0.00000000  1.96307600  7.35019230
   0.00000000  1.96307600  4.47347141
   0.00000000  0.00000000  9.94157309
   0.00000000  0.00000000  1.88209079
 


--------------------------------------------------------------------------------------------------------


 k-point   1 :   0.0000 0.0000 0.0000  plane waves:    3219
 k-point   2 :   0.1429 0.0000 0.0000  plane waves:    3271
 k-point   3 :   0.2857 0.0000 0.0000  plane waves:    3258
 k-point   4 :   0.4286 0.0000 0.0000  plane waves:    3250
 k-point   5 :   0.0000 0.1667 0.0000  plane waves:    3251
 k-point   6 :   0.1429 0.1667 0.0000  plane waves:    3241
 k-point   7 :   0.2857 0.1667 0.0000  plane waves:    3251
 k-point   8 :   0.4286 0.1667 0.0000  plane waves:    3251
 k-point   9 :   0.0000 0.3333 0.0000  plane waves:    3231
 k-point  10 :   0.1429 0.3333 0.0000  plane waves:    3238
 k-point  11 :   0.2857 0.3333 0.0000  plane waves:    3231
 k-point  12 :   0.4286 0.3333 0.0000  plane waves:    3239
 k-point  13 :   0.0000 0.5000 0.0000  plane waves:    3248
 k-point  14 :   0.1429 0.5000 0.0000  plane waves:    3250
 k-point  15 :   0.2857 0.5000 0.0000  plane waves:    3210
 k-point  16 :   0.4286 0.5000 0.0000  plane waves:    3222
 k-point  17 :   0.0000 0.0000 0.5000  plane waves:    3258
 k-point  18 :   0.1429 0.0000 0.5000  plane waves:    3256
 k-point  19 :   0.2857 0.0000 0.5000  plane waves:    3256
 k-point  20 :   0.4286 0.0000 0.5000  plane waves:    3252
 k-point  21 :   0.0000 0.1667 0.5000  plane waves:    3240
 k-point  22 :   0.1429 0.1667 0.5000  plane waves:    3240
 k-point  23 :   0.2857 0.1667 0.5000  plane waves:    3236
 k-point  24 :   0.4286 0.1667 0.5000  plane waves:    3258
 k-point  25 :   0.0000 0.3333 0.5000  plane waves:    3248
 k-point  26 :   0.1429 0.3333 0.5000  plane waves:    3238
 k-point  27 :   0.2857 0.3333 0.5000  plane waves:    3234
 k-point  28 :   0.4286 0.3333 0.5000  plane waves:    3246
 k-point  29 :   0.0000 0.5000 0.5000  plane waves:    3248
 k-point  30 :   0.1429 0.5000 0.5000  plane waves:    3244
 k-point  31 :   0.2857 0.5000 0.5000  plane waves:    3232
 k-point  32 :   0.4286 0.5000 0.5000  plane waves:    3244

 maximum and minimum number of plane-waves per node :      3271     3210

 maximum number of plane-waves:      3271
 maximum index in each direction: 
   IXMAX=    6   IYMAX=    6   IZMAX=   19
   IXMIN=   -6   IYMIN=   -6   IZMIN=  -19


 serial   3D FFT for wavefunctions
 parallel 3D FFT for charge:
    minimum data exchange during FFTs selected (reduces bandwidth)


 total amount of memory used by VASP MPI-rank0   269097. kBytes
=======================================================================

   base      :      30000. kBytes
   nonl-proj :      84417. kBytes
   fftplans  :      28296. kBytes
   grid      :      14969. kBytes
   one-center:        390. kBytes
   wavefun   :     111025. kBytes
 
     INWAV:  cpu time      0.0000: real time      0.0000
 Broyden mixing: mesh for mixing (old mesh)
   NGX = 13   NGY = 13   NGZ = 39
  (NGX  = 40   NGY  = 40   NGZ  =120)
  gives a total of   6591 points

 initial charge density was supplied:
 charge density of overlapping atoms calculated
 number of electron     106.0000000 magnetization 
 keeping initial charge density in first step


--------------------------------------------------------------------------------------------------------


 Maximum index for augmentation-charges        75263 (set IRDMAX)


--------------------------------------------------------------------------------------------------------


 First call to EWALD:  gamma=   0.315
 Maximum number of real-space cells 4x 4x 2
 Maximum number of reciprocal cells 2x 2x 5

    FEWALD:  cpu time      0.0017: real time      0.0017


--------------------------------------- Iteration      1(   1)  ---------------------------------------


    POTLOK:  cpu time      0.0727: real time      0.0727
    SETDIJ:  cpu time      0.1199: real time      0.1199
     EDDAV:  cpu time      7.1360: real time      7.2110
       DOS:  cpu time      0.0044: real time      0.0044
    --------------------------------------------
      LOOP:  cpu time      7.3329: real time      7.4079

 eigenvalue-minimisations  :  4032
 total energy-change (2. order) : 0.1284496E+04  (-0.4093159E+04)
 number of electron     106.0000000 magnetization 
 augmentation part      106.0000000 magnetization 

 Free energy of the ion-electron system (eV)
  ---------------------------------------------------
  alpha Z        PSCENC =       648.52651563
  Ewald energy   TEWEN  =     -7119.29186874
  -Hartree energ DENC   =     -2894.02409008
  -exchange      EXHF   =         0.00000000
  -V(xc)+E(xc)   XCENC  =       424.51261718
  PAW double counting   =      7947.41503556    -8258.82731398
  entropy T*S    EENTRO =        -0.00263239
  eigenvalues    EBANDS =       888.85220997
  atomic energy  EATOM  =      9647.33595275
  Solvation  Ediel_sol  =         0.00000000
  ---------------------------------------------------
  free energy    TOTEN  =      1284.49642590 eV

  energy without entropy =     1284.49905829  energy(sigma->0) =     1284.49774209


--------------------------------------------------------------------------------------------------------




--------------------------------------- Iteration      1(   2)  ---------------------------------------


     EDDAV:  cpu time      7.4513: real time      7.4526
       DOS:  cpu time      0.0049: real time      0.0049
    --------------------------------------------
      LOOP:  cpu time      7.4562: real time      7.4575

 eigenvalue-minimisations  :  4312
 total energy-change (2. order) :-0.1142058E+04  (-0.1078512E+04)
 number of electron     106.0000000 magnetization 
 augmentation part      106.0000000 magnetization 

 Free energy of the ion-electron system (eV)
  ---------------------------------------------------
  alpha Z        PSCENC =       648.52651563
  Ewald energy   TEWEN  =     -7119.29186874
  -Hartree energ DENC   =     -2894.02409008
  -exchange      EXHF   =         0.00000000
  -V(xc)+E(xc)   XCENC  =       424.51261718
  PAW double counting   =      7947.41503556    -8258.82731398
  entropy T*S    EENTRO =        -0.00491481
  eigenvalues    EBANDS =      -253.20336233
  atomic energy  EATOM  =      9647.33595275
  Solvation  Ediel_sol  =         0.00000000
  ---------------------------------------------------
  free energy    TOTEN  =       142.43857118 eV

  energy without entropy =      142.44348599  energy(sigma->0) =      142.44102858


--------------------------------------------------------------------------------------------------------




--------------------------------------- Iteration      1(   3)  ---------------------------------------


     EDDAV:  cpu time     10.0675: real time     10.0678
       DOS:  cpu time      0.0055: real time      0.0055
    --------------------------------------------
      LOOP:  cpu time     10.0731: real time     10.0733

 eigenvalue-minimisations  :  5999
 total energy-change (2. order) :-0.2256938E+03  (-0.2172655E+03)
 number of electron     106.0000000 magnetization 
 augmentation part      106.0000000 magnetization 

 Free energy of the ion-electron system (eV)
  ---------------------------------------------------
  alpha Z        PSCENC =       648.52651563
  Ewald energy   TEWEN  =     -7119.29186874
  -Hartree energ DENC   =     -2894.02409008
  -exchange      EXHF   =         0.00000000
  -V(xc)+E(xc)   XCENC  =       424.51261718
  PAW double counting   =      7947.41503556    -8258.82731398
  entropy T*S    EENTRO =        -0.01316946
  eigenvalues    EBANDS =      -478.88892954
  atomic energy  EATOM  =      9647.33595275
  Solvation  Ediel_sol  =         0.00000000
  ---------------------------------------------------
  free energy    TOTEN  =       -83.25525069 eV

  energy without entropy =      -83.24208123  energy(sigma->0) =      -83.24866596


--------------------------------------------------------------------------------------------------------




--------------------------------------- Iteration      1(   4)  ---------------------------------------


     EDDAV:  cpu time     11.2619: real time     11.2619
       DOS:  cpu time      0.0056: real time      0.0056
    --------------------------------------------
      LOOP:  cpu time     11.2675: real time     11.2675

 eigenvalue-minimisations  :  6736
 total energy-change (2. order) :-0.2060008E+02  (-0.2033676E+02)
 number of electron     106.0000000 magnetization 
 augmentation part      106.0000000 magnetization 

 Free energy of the ion-electron system (eV)
  ---------------------------------------------------
  alpha Z        PSCENC =       648.52651563
  Ewald energy   TEWEN  =     -7119.29186874
  -Hartree energ DENC   =     -2894.02409008
  -exchange      EXHF   =         0.00000000
  -V(xc)+E(xc)   XCENC  =       424.51261718
  PAW double counting   =      7947.41503556    -8258.82731398
  entropy T*S    EENTRO =        -0.00838937
  eigenvalues    EBANDS =      -499.49378498
  atomic energy  EATOM  =      9647.33595275
  Solvation  Ediel_sol  =         0.00000000
  ---------------------------------------------------
  free energy    TOTEN  =      -103.85532604 eV

  energy without entropy =     -103.84693667  energy(sigma->0) =     -103.85113135


--------------------------------------------------------------------------------------------------------




--------------------------------------- Iteration      1(   5)  ---------------------------------------


     EDDAV:  cpu time     11.1606: real time     11.1607
       DOS:  cpu time      0.0054: real time      0.0054
    CHARGE:  cpu time      0.3987: real time      0.3987
    MIXING:  cpu time      0.0026: real time      0.0026
    --------------------------------------------
      LOOP:  cpu time     11.5673: real time     11.5674

 eigenvalue-minimisations  :  7160
 total energy-change (2. order) :-0.6465669E+00  (-0.6442847E+00)
 number of electron     105.9999994 magnetization 
 augmentation part       22.1872912 magnetization 

 Broyden mixing:
  rms(total) = 0.43807E+01    rms(broyden)= 0.43765E+01
  rms(prec ) = 0.51298E+01
  weight for this iteration     100.00

 Free energy of the ion-electron system (eV)
  ---------------------------------------------------
  alpha Z        PSCENC =       648.52651563
  Ewald energy   TEWEN  =     -7119.29186874
  -Hartree energ DENC   =     -2894.02409008
  -exchange      EXHF   =         0.00000000
  -V(xc)+E(xc)   XCENC  =       424.51261718
  PAW double counting   =      7947.41503556    -8258.82731398
  entropy T*S    EENTRO =        -0.00832565
  eigenvalues    EBANDS =      -500.14041564
  atomic energy  EATOM  =      9647.33595275
  Solvation  Ediel_sol  =         0.00000000
  ---------------------------------------------------
  free energy    TOTEN  =      -104.50189297 eV

  energy without entropy =     -104.49356732  energy(sigma->0) =     -104.49773015


--------------------------------------------------------------------------------------------------------




--------------------------------------- Iteration      1(   6)  ---------------------------------------


    POTLOK:  cpu time      0.0644: real time      0.0645
    SETDIJ:  cpu time      0.0983: real time      0.0983
     EDDAV:  cpu time      9.9836: real time      9.9839
       DOS:  cpu time      0.0055: real time      0.0055
    CHARGE:  cpu time      0.4165: real time      0.4165
    MIXING:  cpu time      0.0026: real time      0.0026
    --------------------------------------------
      LOOP:  cpu time     10.5710: real time     10.5714

 eigenvalue-minimisations  :  6065
 total energy-change (2. order) : 0.8312906E+01  (-0.2672840E+02)
 number of electron     106.0000002 magnetization 
 augmentation part       26.7053150 magnetization 

 Broyden mixing:
  rms(total) = 0.37438E+01    rms(broyden)= 0.37413E+01
  rms(prec ) = 0.41593E+01
  weight for this iteration     100.00

 eigenvalues of (default mixing * dielectric matrix)
  average eigenvalue GAMMA=   0.5701
  0.5701

 Free energy of the ion-electron system (eV)
  ---------------------------------------------------
  alpha Z        PSCENC =       648.52651563
  Ewald energy   TEWEN  =     -7119.29186874
  -Hartree energ DENC   =     -2805.06624916
  -exchange      EXHF   =         0.00000000
  -V(xc)+E(xc)   XCENC  =       424.66830019
  PAW double counting   =      8727.28002346    -9002.79767837
  entropy T*S    EENTRO =        -0.00851088
  eigenvalues    EBANDS =      -616.83547211
  atomic energy  EATOM  =      9647.33595275
  Solvation  Ediel_sol  =         0.00000000
  ---------------------------------------------------
  free energy    TOTEN  =       -96.18898723 eV

  energy without entropy =      -96.18047635  energy(sigma->0) =      -96.18473179


--------------------------------------------------------------------------------------------------------




--------------------------------------- Iteration      1(   7)  ---------------------------------------


    POTLOK:  cpu time      0.0643: real time      0.0644
    SETDIJ:  cpu time      0.1018: real time      0.1018
     EDDAV:  cpu time      9.8501: real time      9.8505
       DOS:  cpu time      0.0053: real time      0.0053
    CHARGE:  cpu time      0.4144: real time      0.4145
    MIXING:  cpu time      0.0027: real time      0.0027
    --------------------------------------------
      LOOP:  cpu time     10.4386: real time     10.4390

 eigenvalue-minimisations  :  6096
 total energy-change (2. order) : 0.1604165E+02  (-0.7724589E+01)
 number of electron     105.9999999 magnetization 
 augmentation part       24.2266581 magnetization 

 Broyden mixing:
  rms(total) = 0.23555E+01    rms(broyden)= 0.23545E+01
  rms(prec ) = 0.24999E+01
  weight for this iteration     100.00

 eigenvalues of (default mixing * dielectric matrix)
  average eigenvalue GAMMA=   0.9568
  1.2623  0.6513

 Free energy of the ion-electron system (eV)
  ---------------------------------------------------
  alpha Z        PSCENC =       648.52651563
  Ewald energy   TEWEN  =     -7119.29186874
  -Hartree energ DENC   =     -2872.87799790
  -exchange      EXHF   =         0.00000000
  -V(xc)+E(xc)   XCENC  =       426.76208921
  PAW double counting   =      9214.29401812    -9529.55638132
  entropy T*S    EENTRO =        -0.00493641
  eigenvalues    EBANDS =      -495.33472753
  atomic energy  EATOM  =      9647.33595275
  Solvation  Ediel_sol  =         0.00000000
  ---------------------------------------------------
  free energy    TOTEN  =       -80.14733619 eV

  energy without entropy =      -80.14239979  energy(sigma->0) =      -80.14486799


--------------------------------------------------------------------------------------------------------




--------------------------------------- Iteration      1(   8)  ---------------------------------------


    POTLOK:  cpu time      0.0639: real time      0.0639
    SETDIJ:  cpu time      0.0995: real time      0.0995
     EDDAV:  cpu time     11.0164: real time     11.0164
       DOS:  cpu time      0.0055: real time      0.0055
    CHARGE:  cpu time      0.4058: real time      0.4058
    MIXING:  cpu time      0.0027: real time      0.0027
    --------------------------------------------
      LOOP:  cpu time     11.5938: real time     11.5939

 eigenvalue-minimisations  :  6752
 total energy-change (2. order) :-0.1972558E+01  (-0.2372780E+01)
 number of electron     105.9999997 magnetization 
 augmentation part       23.9473858 magnetization 

 Broyden mixing:
  rms(total) = 0.23044E+01    rms(broyden)= 0.23031E+01
  rms(prec ) = 0.30562E+01
  weight for this iteration     100.00

 eigenvalues of (default mixing * dielectric matrix)
  average eigenvalue GAMMA=   0.9778
  2.0713  0.5834  0.2786

 Free energy of the ion-electron system (eV)
  ---------------------------------------------------
  alpha Z        PSCENC =       648.52651563
  Ewald energy   TEWEN  =     -7119.29186874
  -Hartree energ DENC   =     -2861.46067157
  -exchange      EXHF   =         0.00000000
  -V(xc)+E(xc)   XCENC  =       426.27946779
  PAW double counting   =      9681.79648983   -10002.25163152
  entropy T*S    EENTRO =        -0.01522547
  eigenvalues    EBANDS =      -503.03892289
  atomic energy  EATOM  =      9647.33595275
  Solvation  Ediel_sol  =         0.00000000
  ---------------------------------------------------
  free energy    TOTEN  =       -82.11989420 eV

  energy without entropy =      -82.10466873  energy(sigma->0) =      -82.11228147


--------------------------------------------------------------------------------------------------------




--------------------------------------- Iteration      1(   9)  ---------------------------------------


    POTLOK:  cpu time      0.0632: real time      0.0632
    SETDIJ:  cpu time      0.0928: real time      0.0928
     EDDAV:  cpu time     10.2570: real time     10.2573
       DOS:  cpu time      0.0050: real time      0.0050
    CHARGE:  cpu time      0.4138: real time      0.4138
    MIXING:  cpu time      0.0028: real time      0.0028
    --------------------------------------------
      LOOP:  cpu time     10.8346: real time     10.8349

 eigenvalue-minimisations  :  6281
 total energy-change (2. order) : 0.3379506E+00  (-0.6702010E+01)
 number of electron     105.9999999 magnetization 
 augmentation part       23.7892768 magnetization 

 Broyden mixing:
  rms(total) = 0.12856E+01    rms(broyden)= 0.12824E+01
  rms(prec ) = 0.16828E+01
  weight for this iteration     100.00

 eigenvalues of (default mixing * dielectric matrix)
  average eigenvalue GAMMA=   1.0521
  2.6997  0.6509  0.6509  0.2068

 Free energy of the ion-electron system (eV)
  ---------------------------------------------------
  alpha Z        PSCENC =       648.52651563
  Ewald energy   TEWEN  =     -7119.29186874
  -Hartree energ DENC   =     -2858.11331361
  -exchange      EXHF   =         0.00000000
  -V(xc)+E(xc)   XCENC  =       425.98197256
  PAW double counting   =     10296.25954338   -10623.42931531
  entropy T*S    EENTRO =        -0.00486881
  eigenvalues    EBANDS =      -499.04656150
  atomic energy  EATOM  =      9647.33595275
  Solvation  Ediel_sol  =         0.00000000
  ---------------------------------------------------
  free energy    TOTEN  =       -81.78194365 eV

  energy without entropy =      -81.77707484  energy(sigma->0) =      -81.77950924


--------------------------------------------------------------------------------------------------------




--------------------------------------- Iteration      1(  10)  ---------------------------------------


    POTLOK:  cpu time      0.0637: real time      0.0637
    SETDIJ:  cpu time      0.0998: real time      0.0998
     EDDAV:  cpu time     10.0155: real time     10.0157
       DOS:  cpu time      0.0052: real time      0.0052
    CHARGE:  cpu time      0.4177: real time      0.4177
    MIXING:  cpu time      0.0029: real time      0.0029
    --------------------------------------------
      LOOP:  cpu time     10.6048: real time     10.6051

 eigenvalue-minimisations  :  5856
 total energy-change (2. order) : 0.1948306E+01  (-0.5831931E+00)
 number of electron     105.9999999 magnetization 
 augmentation part       24.3610737 magnetization 

 Broyden mixing:
  rms(total) = 0.34518E+00    rms(broyden)= 0.34143E+00
  rms(prec ) = 0.42063E+00
  weight for this iteration     100.00

 eigenvalues of (default mixing * dielectric matrix)
  average eigenvalue GAMMA=   0.9954
  2.5600  0.9859  0.6103  0.6103  0.2105

 Free energy of the ion-electron system (eV)
  ---------------------------------------------------
  alpha Z        PSCENC =       648.52651563
  Ewald energy   TEWEN  =     -7119.29186874
  -Hartree energ DENC   =     -2850.30360810
  -exchange      EXHF   =         0.00000000
  -V(xc)+E(xc)   XCENC  =       426.00445585
  PAW double counting   =     10763.01709926   -11092.35322121
  entropy T*S    EENTRO =        -0.00867983
  eigenvalues    EBANDS =      -502.76028288
  atomic energy  EATOM  =      9647.33595275
  Solvation  Ediel_sol  =         0.00000000
  ---------------------------------------------------
  free energy    TOTEN  =       -79.83363727 eV

  energy without entropy =      -79.82495744  energy(sigma->0) =      -79.82929735


--------------------------------------------------------------------------------------------------------




--------------------------------------- Iteration      1(  11)  ---------------------------------------


    POTLOK:  cpu time      0.0645: real time      0.0645
    SETDIJ:  cpu time      0.1056: real time      0.1056
     EDDAV:  cpu time     11.4142: real time     11.4143
       DOS:  cpu time      0.0053: real time      0.0053
    CHARGE:  cpu time      0.4169: real time      0.4169
    MIXING:  cpu time      0.0029: real time      0.0029
    --------------------------------------------
      LOOP:  cpu time     12.0094: real time     12.0095

 eigenvalue-minimisations  :  6858
 total energy-change (2. order) : 0.9553109E-01  (-0.1629540E+00)
 number of electron     105.9999998 magnetization 
 augmentation part       23.9325410 magnetization 

 Broyden mixing:
  rms(total) = 0.16906E+00    rms(broyden)= 0.16820E+00
  rms(prec ) = 0.19486E+00
  weight for this iteration     100.00

 eigenvalues of (default mixing * dielectric matrix)
  average eigenvalue GAMMA=   1.0052
  2.7164  0.9508  0.9508  0.6014  0.6014  0.2105

 Free energy of the ion-electron system (eV)
  ---------------------------------------------------
  alpha Z        PSCENC =       648.52651563
  Ewald energy   TEWEN  =     -7119.29186874
  -Hartree energ DENC   =     -2861.20861119
  -exchange      EXHF   =         0.00000000
  -V(xc)+E(xc)   XCENC  =       426.36950716
  PAW double counting   =     10684.42519966   -11014.41511838
  entropy T*S    EENTRO =        -0.00551257
  eigenvalues    EBANDS =      -491.47417049
  atomic energy  EATOM  =      9647.33595275
  Solvation  Ediel_sol  =         0.00000000
  ---------------------------------------------------
  free energy    TOTEN  =       -79.73810618 eV

  energy without entropy =      -79.73259361  energy(sigma->0) =      -79.73534989


--------------------------------------------------------------------------------------------------------




--------------------------------------- Iteration      1(  12)  ---------------------------------------


    POTLOK:  cpu time      0.0656: real time      0.0656
    SETDIJ:  cpu time      0.1020: real time      0.1020
     EDDAV:  cpu time     10.9439: real time     10.9439
       DOS:  cpu time      0.0053: real time      0.0053
    CHARGE:  cpu time      0.4236: real time      0.4236
    MIXING:  cpu time      0.0032: real time      0.0032
    --------------------------------------------
      LOOP:  cpu time     11.5435: real time     11.5436

 eigenvalue-minimisations  :  6456
 total energy-change (2. order) : 0.2606981E-03  (-0.3028342E-01)
 number of electron     105.9999999 magnetization 
 augmentation part       24.0694148 magnetization 

 Broyden mixing:
  rms(total) = 0.10539E+00    rms(broyden)= 0.10536E+00
  rms(prec ) = 0.13308E+00
  weight for this iteration     100.00

 eigenvalues of (default mixing * dielectric matrix)
  average eigenvalue GAMMA=   1.1101
  2.8514  1.4804  1.2713  0.2105  0.5899  0.5899  0.7772

 Free energy of the ion-electron system (eV)
  ---------------------------------------------------
  alpha Z        PSCENC =       648.52651563
  Ewald energy   TEWEN  =     -7119.29186874
  -Hartree energ DENC   =     -2858.92771057
  -exchange      EXHF   =         0.00000000
  -V(xc)+E(xc)   XCENC  =       426.31934288
  PAW double counting   =     10695.15305621   -11023.48647041
  entropy T*S    EENTRO =        -0.00648661
  eigenvalues    EBANDS =      -495.36017661
  atomic energy  EATOM  =      9647.33595275
  Solvation  Ediel_sol  =         0.00000000
  ---------------------------------------------------
  free energy    TOTEN  =       -79.73784548 eV

  energy without entropy =      -79.73135886  energy(sigma->0) =      -79.73460217


--------------------------------------------------------------------------------------------------------




--------------------------------------- Iteration      1(  13)  ---------------------------------------


    POTLOK:  cpu time      0.0645: real time      0.0645
    SETDIJ:  cpu time      0.1022: real time      0.1022
     EDDAV:  cpu time     10.9862: real time     10.9862
       DOS:  cpu time      0.0055: real time      0.0055
    CHARGE:  cpu time      0.4118: real time      0.4119
    MIXING:  cpu time      0.0034: real time      0.0034
    --------------------------------------------
      LOOP:  cpu time     11.5737: real time     11.5738

 eigenvalue-minimisations  :  6456
 total energy-change (2. order) :-0.2060774E-02  (-0.1138993E-01)
 number of electron     105.9999999 magnetization 
 augmentation part       24.0699100 magnetization 

 Broyden mixing:
  rms(total) = 0.10859E+00    rms(broyden)= 0.10844E+00
  rms(prec ) = 0.13715E+00
  weight for this iteration     100.00

 eigenvalues of (default mixing * dielectric matrix)
  average eigenvalue GAMMA=   1.1155
  2.9089  2.3704  0.2105  0.8534  0.5952  0.5952  0.6953  0.6953

 Free energy of the ion-electron system (eV)
  ---------------------------------------------------
  alpha Z        PSCENC =       648.52651563
  Ewald energy   TEWEN  =     -7119.29186874
  -Hartree energ DENC   =     -2861.82665689
  -exchange      EXHF   =         0.00000000
  -V(xc)+E(xc)   XCENC  =       426.51471033
  PAW double counting   =     10662.63917849   -10989.85582024
  entropy T*S    EENTRO =        -0.00828332
  eigenvalues    EBANDS =      -493.77363426
  atomic energy  EATOM  =      9647.33595275
  Solvation  Ediel_sol  =         0.00000000
  ---------------------------------------------------
  free energy    TOTEN  =       -79.73990625 eV

  energy without entropy =      -79.73162293  energy(sigma->0) =      -79.73576459


--------------------------------------------------------------------------------------------------------




--------------------------------------- Iteration      1(  14)  ---------------------------------------


    POTLOK:  cpu time      0.0642: real time      0.0642
    SETDIJ:  cpu time      0.0994: real time      0.0994
     EDDAV:  cpu time     11.7693: real time     11.7697
       DOS:  cpu time      0.0054: real time      0.0054
    CHARGE:  cpu time      0.4182: real time      0.4183
    MIXING:  cpu time      0.0038: real time      0.0038
    --------------------------------------------
      LOOP:  cpu time     12.3603: real time     12.3607

 eigenvalue-minimisations  :  7032
 total energy-change (2. order) : 0.1324190E-01  (-0.4573925E-02)
 number of electron     105.9999999 magnetization 
 augmentation part       24.0251248 magnetization 

 Broyden mixing:
  rms(total) = 0.63686E-01    rms(broyden)= 0.63511E-01
  rms(prec ) = 0.66749E-01
  weight for this iteration     100.00

 eigenvalues of (default mixing * dielectric matrix)
  average eigenvalue GAMMA=   1.0213
  2.4383  2.4383  1.0419  0.2105  0.7085  0.5904  0.5904  0.5868  0.5868

 Free energy of the ion-electron system (eV)
  ---------------------------------------------------
  alpha Z        PSCENC =       648.52651563
  Ewald energy   TEWEN  =     -7119.29186874
  -Hartree energ DENC   =     -2862.68092947
  -exchange      EXHF   =         0.00000000
  -V(xc)+E(xc)   XCENC  =       426.51362492
  PAW double counting   =     10640.23217050   -10966.78227079
  entropy T*S    EENTRO =        -0.00659673
  eigenvalues    EBANDS =      -493.57326243
  atomic energy  EATOM  =      9647.33595275
  Solvation  Ediel_sol  =         0.00000000
  ---------------------------------------------------
  free energy    TOTEN  =       -79.72666435 eV

  energy without entropy =      -79.72006763  energy(sigma->0) =      -79.72336599


--------------------------------------------------------------------------------------------------------




--------------------------------------- Iteration      1(  15)  ---------------------------------------


    POTLOK:  cpu time      0.0655: real time      0.0655
    SETDIJ:  cpu time      0.1028: real time      0.1029
     EDDAV:  cpu time     10.4598: real time     10.4599
       DOS:  cpu time      0.0054: real time      0.0054
    CHARGE:  cpu time      0.4194: real time      0.4194
    MIXING:  cpu time      0.0038: real time      0.0038
    --------------------------------------------
      LOOP:  cpu time     11.0568: real time     11.0568

 eigenvalue-minimisations  :  6128
 total energy-change (2. order) :-0.2112456E-03  (-0.6906415E-03)
 number of electron     105.9999999 magnetization 
 augmentation part       24.0392231 magnetization 

 Broyden mixing:
  rms(total) = 0.34833E-01    rms(broyden)= 0.34830E-01
  rms(prec ) = 0.40201E-01
  weight for this iteration     100.00

 eigenvalues of (default mixing * dielectric matrix)
  average eigenvalue GAMMA=   1.0781
  2.4869  2.4869  1.2212  0.2105  0.8598  0.8598  0.5938  0.5938  0.7343  0.7343

 Free energy of the ion-electron system (eV)
  ---------------------------------------------------
  alpha Z        PSCENC =       648.52651563
  Ewald energy   TEWEN  =     -7119.29186874
  -Hartree energ DENC   =     -2862.29506339
  -exchange      EXHF   =         0.00000000
  -V(xc)+E(xc)   XCENC  =       426.50288542
  PAW double counting   =     10638.72920512   -10965.40496436
  entropy T*S    EENTRO =        -0.00693116
  eigenvalues    EBANDS =      -493.82260687
  atomic energy  EATOM  =      9647.33595275
  Solvation  Ediel_sol  =         0.00000000
  ---------------------------------------------------
  free energy    TOTEN  =       -79.72687560 eV

  energy without entropy =      -79.71994444  energy(sigma->0) =      -79.72341002


--------------------------------------------------------------------------------------------------------




--------------------------------------- Iteration      1(  16)  ---------------------------------------


    POTLOK:  cpu time      0.0682: real time      0.0682
    SETDIJ:  cpu time      0.1009: real time      0.1009
     EDDAV:  cpu time     11.0558: real time     11.0559
       DOS:  cpu time      0.0053: real time      0.0053
    CHARGE:  cpu time      0.4048: real time      0.4048
    MIXING:  cpu time      0.0038: real time      0.0038
    --------------------------------------------
      LOOP:  cpu time     11.6389: real time     11.6390

 eigenvalue-minimisations  :  6480
 total energy-change (2. order) : 0.6917765E-03  (-0.2660992E-03)
 number of electron     105.9999999 magnetization 
 augmentation part       24.0292366 magnetization 

 Broyden mixing:
  rms(total) = 0.12299E-01    rms(broyden)= 0.12276E-01
  rms(prec ) = 0.14641E-01
  weight for this iteration     100.00

 eigenvalues of (default mixing * dielectric matrix)
  average eigenvalue GAMMA=   1.1371
  2.6033  2.3497  2.3497  0.2105  0.8707  0.8707  0.7590  0.6416  0.6416  0.6057
  0.6057

 Free energy of the ion-electron system (eV)
  ---------------------------------------------------
  alpha Z        PSCENC =       648.52651563
  Ewald energy   TEWEN  =     -7119.29186874
  -Hartree energ DENC   =     -2862.76405401
  -exchange      EXHF   =         0.00000000
  -V(xc)+E(xc)   XCENC  =       426.53699247
  PAW double counting   =     10639.05678031   -10965.72228922
  entropy T*S    EENTRO =        -0.00730456
  eigenvalues    EBANDS =      -493.39690845
  atomic energy  EATOM  =      9647.33595275
  Solvation  Ediel_sol  =         0.00000000
  ---------------------------------------------------
  free energy    TOTEN  =       -79.72618382 eV

  energy without entropy =      -79.71887926  energy(sigma->0) =      -79.72253154


--------------------------------------------------------------------------------------------------------




--------------------------------------- Iteration      1(  17)  ---------------------------------------


    POTLOK:  cpu time      0.0631: real time      0.0631
    SETDIJ:  cpu time      0.0960: real time      0.0960
     EDDAV:  cpu time     11.8681: real time     11.8682
       DOS:  cpu time      0.0054: real time      0.0054
    CHARGE:  cpu time      0.4140: real time      0.4140
    MIXING:  cpu time      0.0039: real time      0.0039
    --------------------------------------------
      LOOP:  cpu time     12.4505: real time     12.4505

 eigenvalue-minimisations  :  7064
 total energy-change (2. order) :-0.1819643E-04  (-0.1053326E-03)
 number of electron     105.9999999 magnetization 
 augmentation part       24.0365841 magnetization 

 Broyden mixing:
  rms(total) = 0.17000E-01    rms(broyden)= 0.16991E-01
  rms(prec ) = 0.20019E-01
  weight for this iteration     100.00

 eigenvalues of (default mixing * dielectric matrix)
  average eigenvalue GAMMA=   1.1109
  2.8098  2.1601  2.1601  0.2105  0.9261  0.9261  0.9028  0.7023  0.7023  0.5997
  0.5997  0.6313

 Free energy of the ion-electron system (eV)
  ---------------------------------------------------
  alpha Z        PSCENC =       648.52651563
  Ewald energy   TEWEN  =     -7119.29186874
  -Hartree energ DENC   =     -2862.46854296
  -exchange      EXHF   =         0.00000000
  -V(xc)+E(xc)   XCENC  =       426.53162600
  PAW double counting   =     10642.86351522   -10969.48981260
  entropy T*S    EENTRO =        -0.00760108
  eigenvalues    EBANDS =      -493.72598624
  atomic energy  EATOM  =      9647.33595275
  Solvation  Ediel_sol  =         0.00000000
  ---------------------------------------------------
  free energy    TOTEN  =       -79.72620202 eV

  energy without entropy =      -79.71860094  energy(sigma->0) =      -79.72240148


--------------------------------------------------------------------------------------------------------




--------------------------------------- Iteration      1(  18)  ---------------------------------------


    POTLOK:  cpu time      0.0647: real time      0.0647
    SETDIJ:  cpu time      0.1035: real time      0.1035
     EDDAV:  cpu time     12.1705: real time     12.1706
       DOS:  cpu time      0.0054: real time      0.0054
    CHARGE:  cpu time      0.4171: real time      0.4171
    MIXING:  cpu time      0.0042: real time      0.0042
    --------------------------------------------
      LOOP:  cpu time     12.7654: real time     12.7655

 eigenvalue-minimisations  :  7232
 total energy-change (2. order) : 0.2004086E-03  (-0.6328760E-04)
 number of electron     105.9999999 magnetization 
 augmentation part       24.0301809 magnetization 

 Broyden mixing:
  rms(total) = 0.53230E-02    rms(broyden)= 0.52991E-02
  rms(prec ) = 0.56010E-02
  weight for this iteration     100.00

 eigenvalues of (default mixing * dielectric matrix)
  average eigenvalue GAMMA=   1.1668
  2.8126  2.3470  2.3470  1.2525  1.2525  0.2105  0.7025  0.7025  0.7748  0.7860
  0.7860  0.5973  0.5973

 Free energy of the ion-electron system (eV)
  ---------------------------------------------------
  alpha Z        PSCENC =       648.52651563
[...]
      3     -22.0874      2.00000
      4     -18.1118      2.00000
      5     -17.8483      2.00000
      6     -17.7127      2.00000
      7     -14.0560      2.00000
      8     -13.8562      2.00000
      9     -13.6266      2.00000
     10     -13.4761      2.00000
     11     -13.2732      2.00000
     12     -13.2272      2.00000
     13     -13.0686      2.00000
     14      -7.4364      2.00000
     15      -7.4023      2.00000
     16      -7.3571      2.00000
     17      -7.3069      2.00000
     18      -7.0863      2.00000
     19      -7.0531      2.00000
     20      -2.3759      2.00000
     21      -2.2683      2.00000
     22      -2.0616      2.00000
     23      -1.2651      2.00000
     24      -1.2535      2.00000
     25      -0.9375      2.00000
     26      -0.8910      2.00000
     27      -0.8304      2.00000
     28      -0.7824      2.00000
     29      -0.3715      2.00000
     30      -0.0425      2.00000
     31       0.0054      2.00000
     32       0.0287      2.00000
     33       0.2193      2.00000
     34       0.2497      2.00000
     35       0.6921      2.00000
     36       0.8876      2.00000
     37       0.9604      2.00000
     38       1.1138      2.00000
     39       1.2297      2.00000
     40       1.3707      2.00000
     41       1.7617      2.00000
     42       1.8616      2.00000
     43       1.9838      2.00000
     44       2.0394      2.00000
     45       2.2423      2.00000
     46       2.4174      2.00000
     47       2.4518      2.00000
     48       2.4784      2.00000
     49       2.6357      2.00000
     50       2.6481      2.00000
     51       2.9028      2.00000
     52       3.1666      2.00000
     53       3.4185      0.37655
     54       3.6198      0.00000
     55       5.0518      0.00000
     56       7.7882      0.00000
     57       8.0231      0.00000
     58       8.2949      0.00000
     59       8.8010      0.00000
     60       9.2191      0.00000
     61       9.7304      0.00000
     62      10.0128      0.00000
     63      10.0504      0.00000

 k-point    31 :       0.2857    0.5000    0.5000
  band No.  band energies     occupation 
      1     -37.6311      2.00000
      2     -22.0660      2.00000
      3     -22.0486      2.00000
      4     -18.0932      2.00000
      5     -17.9402      2.00000
      6     -17.7616      2.00000
      7     -13.9485      2.00000
      8     -13.6490      2.00000
      9     -13.5632      2.00000
     10     -13.5211      2.00000
     11     -13.2303      2.00000
     12     -13.1776      2.00000
     13     -12.9769      2.00000
     14      -7.6705      2.00000
     15      -7.6322      2.00000
     16      -7.5970      2.00000
     17      -7.5645      2.00000
     18      -7.3689      2.00000
     19      -7.3504      2.00000
     20      -2.9017      2.00000
     21      -2.4457      2.00000
     22      -2.1153      2.00000
     23      -1.5684      2.00000
     24      -1.4964      2.00000
     25      -1.4269      2.00000
     26      -1.1924      2.00000
     27      -1.0212      2.00000
     28      -0.4522      2.00000
     29      -0.3880      2.00000
     30      -0.1161      2.00000
     31      -0.0632      2.00000
     32       0.0839      2.00000
     33       0.2594      2.00000
     34       0.3456      2.00000
     35       0.3633      2.00000
     36       1.1655      2.00000
     37       1.3594      2.00000
     38       1.5237      2.00000
     39       1.6030      2.00000
     40       1.9896      2.00000
     41       1.9973      2.00000
     42       2.0530      2.00000
     43       2.1515      2.00000
     44       2.3053      2.00000
     45       2.3277      2.00000
     46       2.3675      2.00000
     47       2.3988      2.00000
     48       2.6011      2.00000
     49       2.7495      2.00000
     50       2.8525      2.00000
     51       2.9394      2.00000
     52       3.1820      2.00000
     53       4.4352      0.00000
     54       4.5300      0.00000
     55       5.0042      0.00000
     56       6.8441      0.00000
     57       7.4343      0.00000
     58       8.5963      0.00000
     59       9.1495      0.00000
     60       9.3251      0.00000
     61       9.8205      0.00000
     62       9.8289      0.00000
     63      10.0301      0.00000

 k-point    32 :       0.4286    0.5000    0.5000
  band No.  band energies     occupation 
      1     -37.6266      2.00000
      2     -22.0319      2.00000
      3     -22.0170      2.00000
      4     -18.1038      2.00000
      5     -18.0784      2.00000
      6     -17.6874      2.00000
      7     -13.8582      2.00000
      8     -13.7969      2.00000
      9     -13.4326      2.00000
     10     -13.3467      2.00000
     11     -13.2300      2.00000
     12     -13.0962      2.00000
     13     -12.8991      2.00000
     14      -7.9178      2.00000
     15      -7.9123      2.00000
     16      -7.8880      2.00000
     17      -7.6844      2.00000
     18      -7.5671      2.00000
     19      -7.3658      2.00000
     20      -3.3401      2.00000
     21      -2.7906      2.00000
     22      -2.0900      2.00000
     23      -1.7506      2.00000
     24      -1.6600      2.00000
     25      -1.6145      2.00000
     26      -1.1831      2.00000
     27      -1.1416      2.00000
     28      -0.4769      2.00000
     29      -0.2767      2.00000
     30      -0.1363      2.00000
     31      -0.0058      2.00000
     32       0.0890      2.00000
     33       0.1462      2.00000
     34       0.1600      2.00000
     35       0.4239      2.00000
     36       1.3759      2.00000
     37       1.6275      2.00000
     38       1.9274      2.00000
     39       1.9286      2.00000
     40       2.0726      2.00000
     41       2.1669      2.00000
     42       2.2422      2.00000
     43       2.2597      2.00000
     44       2.2858      2.00000
     45       2.4183      2.00000
     46       2.5245      2.00000
     47       2.5800      2.00000
     48       2.7339      2.00000
     49       2.8207      2.00000
     50       2.8408      2.00000
     51       3.2078      2.00000
     52       3.3365      1.84859
     53       4.9419      0.00000
     54       5.0144      0.00000
     55       5.0909      0.00000
     56       6.2092      0.00000
     57       7.0920      0.00000
     58       8.8288      0.00000
     59       9.0984      0.00000
     60       9.2109      0.00000
     61       9.6525      0.00000
     62       9.7645      0.00000
     63       9.9885      0.00000


--------------------------------------------------------------------------------------------------------


 soft charge-density along one line, spin component           1
         0         1         2         3         4         5         6         7         8         9
 total charge-density along one line
 
 pseudopotential strength for first ion, spin component:           1
  1.333  -5.142  -0.000  -0.005   0.000  -0.000   0.001   0.000
 -5.142   0.755   0.000   0.003  -0.000  -0.000  -0.001   0.000
 -0.000   0.000  -7.654  -0.000  -0.000   4.485  -0.000  -0.000
 -0.005   0.003  -0.000  -7.651  -0.000  -0.000   4.491  -0.000
  0.000  -0.000  -0.000  -0.000  -7.658  -0.000  -0.000   4.478
 -0.000  -0.000   4.485  -0.000  -0.000   6.726   0.000   0.000
  0.001  -0.001  -0.000   4.491  -0.000   0.000   6.721   0.000
  0.000   0.000  -0.000  -0.000   4.478   0.000   0.000   6.732
 -0.000   0.000  -0.000  -0.000  -0.000  -0.000  -0.000  -0.000
 -0.000   0.000  -0.001   0.000  -0.000   0.000   0.000  -0.000
  0.003  -0.003   0.000  -0.001  -0.000   0.000   0.000  -0.000
 -0.000   0.000  -0.000   0.000  -0.003  -0.000   0.000  -0.001
 -0.002   0.002  -0.000  -0.001   0.000  -0.000  -0.001   0.000
 -0.000   0.000  -0.000  -0.000  -0.000  -0.000  -0.000  -0.000
 -0.000   0.000  -0.002   0.000  -0.000   0.000   0.000  -0.000
  0.005  -0.005   0.000  -0.002  -0.000   0.000   0.000  -0.000
 -0.000   0.000  -0.000   0.000  -0.004  -0.000   0.000  -0.002
 -0.003   0.003  -0.000  -0.001   0.000  -0.000  -0.001   0.000
 total augmentation occupancy for first ion, spin component:           1
  2.002  -0.006   0.000  -0.001   0.000   0.000  -0.001  -0.000   0.000   0.000   0.004   0.000  -0.009  -0.000   0.000   0.004
 -0.006   0.416   0.000  -0.019   0.000   0.000   0.005  -0.000   0.000   0.000  -0.211   0.000   0.061  -0.000   0.000   0.105
  0.000   0.000   2.017   0.000   0.000  -0.008   0.000  -0.000   0.000   0.005   0.000  -0.000   0.000   0.000  -0.005   0.000
 -0.001  -0.019  -0.000   2.011   0.000  -0.000  -0.002  -0.000   0.000  -0.000   0.017   0.000  -0.060   0.000   0.000  -0.011
  0.000   0.000  -0.000   0.000   2.023   0.000   0.000  -0.014   0.000   0.000   0.000  -0.098   0.000   0.000   0.000   0.000
  0.000  -0.000  -0.008   0.000  -0.000   0.010   0.000   0.000  -0.000   0.005  -0.000   0.000   0.000   0.000  -0.002  -0.000
 -0.001   0.005   0.000  -0.002   0.000   0.000   0.008   0.000  -0.000   0.000  -0.006   0.000   0.016  -0.000   0.000   0.004
  0.000   0.000   0.000  -0.000  -0.014   0.000   0.000   0.011   0.000   0.000  -0.000   0.030   0.000   0.000  -0.000  -0.000
  0.000   0.000  -0.000   0.000   0.000  -0.000  -0.000   0.000   3.570   0.000  -0.000   0.000   0.000  -1.866   0.000   0.000
  0.000   0.000   0.005   0.000  -0.000   0.005   0.000   0.000   0.000   1.450  -0.000   0.000   0.000   0.000  -0.765   0.000
  0.004  -0.211   0.000   0.017  -0.000  -0.000  -0.006  -0.000  -0.000   0.000   2.092   0.000   0.240   0.000   0.000  -1.080
  0.000   0.000  -0.000   0.000  -0.098   0.000  -0.000   0.030   0.000  -0.000   0.000   2.285   0.000   0.000   0.000   0.000
 -0.009   0.061   0.000  -0.060   0.000   0.000   0.016   0.000   0.000   0.000   0.240   0.000   1.305  -0.000   0.000  -0.123
  0.000   0.000  -0.000   0.000   0.000  -0.000   0.000   0.000  -1.866   0.000   0.000  -0.000  -0.000   0.979   0.000  -0.000
  0.000   0.000  -0.005   0.000  -0.000  -0.002   0.000   0.000   0.000  -0.765   0.000   0.000   0.000   0.000   0.404  -0.000
  0.004   0.105   0.000  -0.011   0.000   0.000   0.004  -0.000  -0.000  -0.000  -1.080   0.000  -0.123   0.000  -0.000   0.560
  0.000   0.000   0.000  -0.000   0.044   0.000   0.000  -0.015   0.000   0.000   0.000  -1.201   0.000   0.000   0.000   0.000
  0.001  -0.031   0.000   0.029   0.000  -0.000  -0.008   0.000   0.000   0.000  -0.123   0.000  -0.674   0.000   0.000   0.063


------------------------ aborting loop because EDIFF is reached ----------------------------------------





 total charge

# of ion       s       p       d       f       tot
--------------------------------------------------
    1        2.007   5.635   0.304   0.000   7.945
    2        2.007   5.635   0.304   0.000   7.945
    3        2.163   6.414   0.873   0.128   9.579
    4        0.367   0.397   9.102   0.000   9.866
    5        0.367   0.397   9.102   0.000   9.866
    6        0.422   0.446   9.055   0.000   9.923
    7        1.590   3.379   0.000   0.000   4.969
    8        1.585   3.439   0.000   0.000   5.024
    9        1.585   3.439   0.000   0.000   5.024
   10        1.586   3.432   0.000   0.000   5.018
   11        1.586   3.432   0.000   0.000   5.018
   12        1.589   3.405   0.000   0.000   4.995
   13        1.589   3.405   0.000   0.000   4.995
--------------------------------------------------
tot         18.443  42.857  28.739   0.128  90.168
 
    CHARGE:  cpu time      0.4147: real time      0.4147
    FORLOC:  cpu time      0.0167: real time      0.0167
    FORNL :  cpu time      5.5033: real time      5.5034
    STRESS:  cpu time      8.2316: real time      8.2317
    FORCOR:  cpu time      0.0858: real time      0.0858
    FORHAR:  cpu time      0.0315: real time      0.0315
    MIXING:  cpu time      0.0052: real time      0.0052
    OFIELD:  cpu time      0.0001: real time      0.0001

  FORCE on cell =-STRESS in cart. coord.  units (eV):
  Direction    XX          YY          ZZ          XY          YZ          ZX
  --------------------------------------------------------------------------------------
  Alpha Z   648.52652   648.52652   648.52652
  Ewald   -2333.05914 -1721.41810 -3064.82822    -0.00000    -0.00000    -0.00000
  Hartree   999.19910  1473.70740   389.64335    -0.00000    -0.00000    -0.00000
  E(xc)    -513.69439  -513.08843  -514.27254    -0.00000    -0.00000    -0.00000
  Local    -386.50915 -1450.52616   948.53552    -0.00000    -0.00000    -0.00000
  n-local  -351.46783  -349.87828  -350.86048    -1.43678    -0.00000    -0.00000
  augment   330.30706   323.79669   335.28556     0.00000     0.00005     0.00003
  Kinetic  1602.64042  1584.30068  1603.58006    -1.72611     0.00000    -0.00000
  Fock        0.00000     0.00000     0.00000     0.00000     0.00000     0.00000
  -------------------------------------------------------------------------------------
  Total      -4.05741    -4.57968    -4.39024    -0.00000     0.00000     0.00000
  in kB     -36.42346   -41.11193   -39.41130    -0.00000     0.00000     0.00000
  external pressure =      -38.98 kB  Pullay stress =        0.00 kB


 VOLUME and BASIS-vectors are now :
 -----------------------------------------------------------------------------
  energy-cutoff  :      400.00
  volume of cell :      178.48
      direct lattice vectors                 reciprocal lattice vectors
     3.844667912  0.000000000  0.000000000     0.260100488  0.000000000  0.000000000
     0.000000000  3.926151991  0.000000000     0.000000000  0.254702315  0.000000000
     0.000000000  0.000000000 11.823663712     0.000000000  0.000000000  0.084576154

  length of vectors
     3.844667912  3.926151991 11.823663712     0.260100488  0.254702315  0.084576154


 FORCES acting on ions
    electron-ion (+dipol)            ewald-force                    non-local-force                 convergence-correction
 -----------------------------------------------------------------------------------------------
   0.348E-13 0.638E-13 -.248E+03   -.187E-13 0.201E-13 0.249E+03   0.766E-25 -.241E-23 -.672E+00   -.144E-13 0.195E-13 0.138E-03
   0.440E-13 0.165E-14 0.248E+03   0.161E-13 0.827E-16 -.249E+03   0.542E-24 0.197E-23 0.672E+00   0.200E-13 -.484E-14 -.134E-03
   -.112E-13 -.103E-11 -.645E-05   -.121E-13 0.401E-14 0.528E-04   0.240E-24 0.325E-24 -.239E-21   -.385E-13 0.326E-13 -.532E-05
   -.347E-13 -.624E-14 -.324E+03   0.971E-14 -.159E-13 0.323E+03   -.196E-22 -.531E-21 0.270E+00   0.893E-13 0.629E-13 0.160E-03
   -.169E-13 0.397E-14 0.324E+03   0.998E-14 0.615E-14 -.323E+03   0.116E-22 -.421E-21 -.270E+00   -.796E-13 -.250E-13 -.167E-03
   -.409E-13 -.196E-13 0.278E-04   0.391E-14 0.333E-14 -.205E-04   -.533E-24 0.450E-23 -.719E-23   -.592E-13 0.111E-13 0.548E-05
   -.782E-14 0.929E-13 0.173E-04   0.975E-14 -.538E-15 -.257E-04   -.367E-24 0.213E-24 0.388E-22   -.293E-13 0.166E-13 0.300E-05
   0.548E-13 0.174E-13 -.149E+03   -.266E-14 -.386E-14 0.149E+03   -.158E-21 0.433E-22 -.521E+00   -.112E-12 -.924E-14 0.145E-03
   0.410E-13 -.124E-14 0.149E+03   0.227E-14 0.849E-15 -.149E+03   -.149E-21 -.422E-22 0.521E+00   0.235E-13 0.281E-14 -.150E-03
   0.487E-14 0.135E-12 -.156E+03   -.360E-14 0.111E-13 0.157E+03   0.341E-22 -.212E-21 -.160E+01   0.637E-13 0.252E-14 0.193E-03
   0.148E-13 0.907E-13 0.156E+03   -.116E-13 -.879E-15 -.157E+03   0.277E-22 0.249E-21 0.160E+01   -.821E-13 0.385E-13 -.198E-03
   -.367E-13 -.481E-13 -.450E+02   -.118E-13 -.158E-13 0.366E+02   -.114E-22 0.110E-22 0.852E+01   0.284E-13 0.226E-13 0.175E-03
   -.559E-14 -.263E-13 0.450E+02   -.138E-13 0.316E-14 -.366E+02   -.565E-23 0.114E-22 -.852E+01   -.181E-13 -.123E-14 -.172E-03
 -----------------------------------------------------------------------------------------------
   0.405E-13 -.729E-12 0.391E-03   -.223E-13 0.118E-13 -.156E-12   -.271E-21 -.887E-21 0.000E+00   -.209E-12 0.169E-12 -.502E-05
 
 
 POSITION                                       TOTAL-FORCE (eV/Angst)
 -----------------------------------------------------------------------------------
      1.92233      1.96308      9.68820         0.000000      0.000000     -0.023905
      1.92233      1.96308      2.13546         0.000000      0.000000      0.023905
      1.92233      1.96308      5.91183        -0.000000     -0.000000     -0.000000
      0.00000      0.00000      7.64610        -0.000000      0.000000      0.040522
      0.00000      0.00000      4.17756         0.000000      0.000000     -0.040522
      0.00000      0.00000      0.00000         0.000000      0.000000     -0.000000
      0.00000      1.96308      0.00000        -0.000000      0.000000     -0.000000
      1.92233      0.00000      7.33839        -0.000000      0.000000     -0.075926
      1.92233      0.00000      4.48527         0.000000      0.000000      0.075926
      0.00000      1.96308      7.35019        -0.000000      0.000000     -0.119047
      0.00000      1.96308      4.47347         0.000000      0.000000      0.119047
      0.00000      0.00000      9.94157         0.000000      0.000000      0.043874
      0.00000      0.00000      1.88209        -0.000000      0.000000     -0.043874
 -----------------------------------------------------------------------------------
    total drift:                               -0.000000     -0.000000      0.000386


--------------------------------------------------------------------------------------------------------



  FREE ENERGIE OF THE ION-ELECTRON SYSTEM (eV)
  ---------------------------------------------------
  free  energy   TOTEN  =       -79.72600492 eV

  energy  without entropy=      -79.71876250  energy(sigma->0) =      -79.72238371
 


--------------------------------------------------------------------------------------------------------


    POTLOK:  cpu time      0.1676: real time      0.1676


--------------------------------------------------------------------------------------------------------


 writing wavefunctions
     LOOP+:  cpu time    282.8274: real time    282.9079
    4ORBIT:  cpu time      0.0000: real time      0.0000



 total charge

# of ion       s       p       d       f       tot
--------------------------------------------------
    1        2.007   5.635   0.304   0.000   7.945
    2        2.007   5.635   0.304   0.000   7.945
    3        2.163   6.414   0.873   0.128   9.579
    4        0.367   0.397   9.102   0.000   9.866
    5        0.367   0.397   9.102   0.000   9.866
    6        0.422   0.446   9.055   0.000   9.923
    7        1.590   3.379   0.000   0.000   4.969
    8        1.585   3.439   0.000   0.000   5.024
    9        1.585   3.439   0.000   0.000   5.024
   10        1.586   3.432   0.000   0.000   5.018
   11        1.586   3.432   0.000   0.000   5.018
   12        1.589   3.405   0.000   0.000   4.995
   13        1.589   3.405   0.000   0.000   4.995
--------------------------------------------------
tot         18.443  42.857  28.739   0.128  90.168
 

 total amount of memory used by VASP MPI-rank0   269097. kBytes
=======================================================================

   base      :      30000. kBytes
   nonl-proj :      84417. kBytes
   fftplans  :      28296. kBytes
   grid      :      14969. kBytes
   one-center:        390. kBytes
   wavefun   :     111025. kBytes
 
  
  
 General timing and accounting informations for this job:
 ========================================================
  
                  Total CPU time used (sec):      286.789
                            User time (sec):      285.921
                          System time (sec):        0.868
                         Elapsed time (sec):      287.333
  
                   Maximum memory used (kb):      461304.
                   Average memory used (kb):          N/A
  
                          Minor page faults:       109666
                          Major page faults:           14
                 Voluntary context switches:         1254
